<?xml version="1.0" encoding="UTF-8"?>

<!-- generated on 2023-02-17 13:57:10 by Eclipse SUMO sumo Version 1.14.1
<configuration xmlns:xsi="http://www.w3.org/2001/XMLSchema-instance" xsi:noNamespaceSchemaLocation="http://sumo.dlr.de/xsd/sumoConfiguration.xsd">

    <input>
        <net-file value="C:\Users\Nourhan.DESKTOP-MSMUPKR\Sumo\2023-02-17-13-56-53\osm.net.xml"/>
        <route-files value="C:\Users\Nourhan.DESKTOP-MSMUPKR\Sumo\2023-02-17-13-56-53\trips.trips.xml"/>
        <additional-files value="C:\Users\Nourhan.DESKTOP-MSMUPKR\Sumo\2023-02-17-13-56-53\osm_stops.add.xml"/>
    </input>

    <output>
        <vehroute-output value="C:\Users\Nourhan.DESKTOP-MSMUPKR\Sumo\2023-02-17-13-56-53\vehroutes.xml"/>
        <stop-output value="C:\Users\Nourhan.DESKTOP-MSMUPKR\Sumo\2023-02-17-13-56-53\stopinfos.xml"/>
    </output>

    <time>
        <begin value="0"/>
    </time>

    <processing>
        <ignore-route-errors value="true"/>
    </processing>

    <routing>
        <device.rerouting.adaptation-interval value="0"/>
    </routing>

    <report>
        <aggregate-warnings value="5"/>
        <error-log value="C:\Users\Nourhan.DESKTOP-MSMUPKR\Sumo\2023-02-17-13-56-53\trips.trips.xml.errorlog"/>
        <no-step-log value="true"/>
    </report>

</configuration>
-->

<routes xmlns:xsi="http://www.w3.org/2001/XMLSchema-instance" xsi:noNamespaceSchemaLocation="http://sumo.dlr.de/xsd/routes_file.xsd">
</routes>
